456
Lattice="20.94815017098275 -3.412045517350664e-05 -2.2269710615728675e-05 -3.431827648979917e-05 20.947967304256764 -1.0983820669246559e-05 -2.245407280127725e-05 -1.1267829933312672e-05 20.94797217314631" Properties=species:S:1:pos:R:3:forces:R:3:energies:R:1 energy=-118009.23415495 stress="-3.2536711199981e-08 -1.3829649568747e-08 -1.3874366725388e-08 -1.3829649568747e-08 -1.7239092286227e-07 -3.8828265968014e-08 -1.3874366725388e-08 -3.8828265968014e-08 -2.6334680154114e-07" free_energy=-118009.23415495 pbc="T T T"
Zr      18.53562587      10.57149039      10.42623774       0.00024027       0.00000174       0.00000768      -2.78259732
Zr      18.53563066       0.09750089      20.90023074       0.00021729      -0.00005997      -0.00005202      -2.78258954
Zr       8.06153933      10.57150349      20.90023721       0.00023774       0.00003751      -0.00003056      -2.78259378
Zr       8.06156708       0.09752582      10.42625768       0.00025192      -0.00002267      -0.00007721      -2.78258456
Zr       2.60707887      10.57144856      10.42614407      -0.00029950       0.00006181       0.00011505      -2.78257688
Zr       2.60708403       0.09745824      20.90013687      -0.00025980       0.00004593       0.00007644      -2.78257705
Zr      13.08114284      10.57142380      20.90011845      -0.00028874       0.00006303       0.00006181      -2.78257539
Zr      13.08117067       0.09744539      10.42613877      -0.00025644       0.00006308       0.00007068      -2.78257652
Zr      10.57126619      18.53565120      10.42619931       0.00000587       0.00034763      -0.00015950      -2.78258821
Zr      10.57127108       8.06166047      20.90018888       0.00007932       0.00016956      -0.00008604      -2.78258193
Zr       0.09718029      18.53566224      20.90019578      -0.00003439       0.00026128      -0.00008666      -2.78258803
Zr       0.09720848       8.06168372      10.42621406      -0.00004484       0.00014242      -0.00008744      -2.78258261
Zr      10.57126053      10.57146069      18.39036222       0.00000511      -0.00006271       0.00024574      -2.78258443
Zr      10.57128822       0.09748111       7.91638209       0.00002743      -0.00010286       0.00030025      -2.78259057
Zr       0.09719843      10.57148450       7.91638614      -0.00004179      -0.00009386       0.00033292      -2.78258113
Zr       0.09720280       0.09749353      18.39037906      -0.00005092      -0.00007925       0.00019603      -2.78258655
Zr      10.57141367       2.60729060      10.42617607      -0.00000601      -0.00032356       0.00006259      -2.78258881
Zr      10.57138716      13.08127024      20.90015598      -0.00007061      -0.00024426       0.00007546      -2.78258626
Zr       0.09732530       2.60730220      20.90017425      -0.00014607      -0.00027384       0.00009988      -2.78258956
Zr       0.09732162      13.08129348      10.42618054      -0.00015947      -0.00023272       0.00011933      -2.78258066
Zr      10.57141767      10.57145675       2.46200489      -0.00008981       0.00009901      -0.00020611      -2.78259527
Zr      10.57142229       0.09746929      12.93599767      -0.00001291       0.00005702      -0.00028378      -2.78258742
Zr       0.09732904      10.57146927      12.93600213      -0.00016192       0.00011648      -0.00025669      -2.78259663
Zr       0.09735680       0.09749114       2.46202275      -0.00015314       0.00005106      -0.00018140      -2.78258634
O       11.61014239      11.61025325      19.86131684       0.00006030      -0.00004256       0.00003085      -1.47394991
O       11.61017073       1.13627361       9.38733548       0.00000596       0.00002540       0.00004349      -1.47394971
O        1.13607805      11.61027666       9.38734176       0.00008589      -0.00003939       0.00000735      -1.47394973
O        1.13608340       1.13628575      19.86133351       0.00006897       0.00000134       0.00005340      -1.47394980
O       20.00648992      20.00660701      19.86134641       0.00002542      -0.00011174      -0.00010438      -1.47395448
O       20.00651835       9.53262881       9.38736580       0.00005577      -0.00008669      -0.00020324      -1.47395572
O        9.53242574      20.00663018       9.38737170      -0.00000244      -0.00012544      -0.00011174      -1.47395568
O        9.53243130       9.53264033      19.86136371       0.00002742      -0.00007944      -0.00015029      -1.47395526
O       11.61015618      20.00660428      11.46498185      -0.00000025       0.00001926       0.00003170      -1.47394966
O       11.61018413       9.53262540       0.99100079       0.00004178       0.00005260      -0.00003751      -1.47395020
O        1.13609129      20.00662719       0.99100696       0.00005306       0.00002768      -0.00002159      -1.47395045
O        1.13609699       9.53263749      11.46499859       0.00012423       0.00007054      -0.00001763      -1.47394998
O       20.00665278      11.61028672      11.46502184      -0.00003946       0.00009583       0.00006913      -1.47395060
O       20.00668080       1.13630806       0.99104177      -0.00001954       0.00013532       0.00006176      -1.47395024
O        9.53259030      11.61031006       0.99104718      -0.00006546       0.00006139       0.00006789      -1.47394969
O        9.53259538       1.13632035      11.46503918      -0.00004631       0.00008733       0.00006618      -1.47395047
O        9.15860714       9.15870697       1.36499339      -0.00022444      -0.00003840      -0.00006316      -2.08891699
O        9.15857861      19.63268472      11.83897432      -0.00026879      -0.00009152      -0.00002901      -2.08891789
O       19.63267071       9.15868421      11.83896745      -0.00029308      -0.00007788       0.00001315      -2.08891753
O       19.63266468      19.63267263       1.36497675      -0.00025553      -0.00007135      -0.00004732      -2.08891742
O        1.51016797       1.51025606       1.36493831      -0.00003946       0.00016040       0.00017465      -2.08891705
O        1.51014042      11.98423416      11.83891845      -0.00004803       0.00014066       0.00020329      -2.08891636
O       11.98423297       1.51023311      11.83891277      -0.00002942       0.00019696       0.00025472      -2.08891592
O       11.98422783      11.98422213       1.36492104      -0.00005313       0.00013731       0.00019266      -2.08891636
O        9.15860506       1.51026554       9.01343469      -0.00035987      -0.00001756      -0.00008310      -2.08891801
O        9.15857680      11.98424364      19.48741478      -0.00029242      -0.00007311      -0.00003560      -2.08891727
O       19.63266831       1.51024242      19.48740934      -0.00029501      -0.00003135      -0.00004917      -2.08891718
O       19.63266267      11.98423201       9.01341688      -0.00030359      -0.00005502      -0.00007635      -2.08891804
O        1.50995788       9.15868979       9.01339340      -0.00018275      -0.00019853      -0.00015412      -2.08891812
O        1.50992841      19.63266689      19.48737483      -0.00019513      -0.00020884      -0.00013437      -2.08891769
O       11.98402092       9.15866596      19.48736823      -0.00020557      -0.00019822      -0.00015826      -2.08891856
O       11.98401452      19.63265495       9.01337755      -0.00011181      -0.00034824      -0.00025605      -2.08891794
O        8.60340658      17.46321371      10.36329802       0.00000026       0.00011745      -0.00030943       0.85391980
O        8.60341390       6.98922453      20.83729101      -0.00014938       0.00021909      -0.00029278       0.85391091
O       19.07746989      17.46319097      20.83727394       0.00013924       0.00009580      -0.00026863       0.85391981
O       19.07750029       6.98921341      10.36329288      -0.00021968       0.00021941      -0.00032029       0.85391164
O       12.53922527       3.67970189      10.36302825       0.00015720       0.00011659       0.00008313       0.85392504
O       12.53919453      14.15367977      20.83700847       0.00039317       0.00005936       0.00009027       0.85392398
O        2.06513887       3.67971334      20.83702547       0.00012603       0.00009659       0.00006736       0.85392820
O        2.06513086      14.15370270      10.36303410       0.00032746       0.00004304       0.00010231       0.85391861
O        8.60356384       3.67983757      10.48918740       0.00009463      -0.00013234       0.00006509       0.85391738
O        8.60355871      14.15382632       0.01519479      -0.00003437      -0.00017563       0.00005211       0.85391281
O       19.07765074       3.67982543       0.01518984       0.00000696      -0.00015609       0.00007093       0.85391477
O       19.07762267      14.15380336      10.48916978      -0.00011958      -0.00022985       0.00009715       0.85390524
O       12.53909524      17.46314258      10.48916088      -0.00004856      -0.00011716      -0.00004524       0.85392448
O       12.53912271       6.98916532       0.01518050       0.00006009      -0.00005194      -0.00003778       0.85391983
O        2.06503033      17.46316521       0.01518594      -0.00001685      -0.00006925      -0.00005455       0.85392056
O        2.06503512       6.98917767      10.48917702       0.00033291       0.00003879      -0.00004567       0.85391986
O       10.50801279       8.60363141      17.31795084      -0.00005953       0.00017105      -0.00011893       0.85392066
O       10.50800712      19.07762493       6.84395821      -0.00007613      -0.00034182      -0.00000309       0.85392122
O        0.03394966       8.60365599       6.84397588      -0.00004206       0.00016838      -0.00013150       0.85391520
O        0.03392039      19.07763524      17.31795602      -0.00006913      -0.00008441      -0.00007558       0.85391837
O       17.46311096      10.50847564       8.45842132       0.00003112      -0.00010985      -0.00032797       0.85393564
O       17.46311665       0.03448635      18.93241190       0.00000663      -0.00009865      -0.00022217       0.85392439
O        6.98902498      10.50848695      18.93241849       0.00004508      -0.00010384      -0.00034902       0.85393145
O        6.98905325       0.03450916       8.45843600       0.00002730      -0.00009463      -0.00024588       0.85392286
O       10.63438349      12.53926447      17.31790951      -0.00012054      -0.00022496      -0.00001922       0.85391489
O       10.63441209       2.06528572       6.84392921      -0.00011691       0.00013695       0.00002665       0.85392335
O        0.16031903      12.53928750       6.84393449      -0.00012512      -0.00020644      -0.00004553       0.85391370
O        0.16032433       2.06529546      17.31792562      -0.00010042       0.00020052       0.00010227       0.85391540
O        3.67958451      10.50834903      12.39401897       0.00007328       0.00018789      -0.00026248       0.85391112
O        3.67961099       0.03437067       1.92003737       0.00007862       0.00021955      -0.00022038       0.85391667
O       14.15367111      10.50833710       1.92002345       0.00011028       0.00018736      -0.00029954       0.85391327
O       14.15367540       0.03434718      12.39401323       0.00007716       0.00017719      -0.00018080       0.85391743
O       10.50837762      12.53929655       3.53444732      -0.00004565       0.00000669       0.00008483       0.85393146
O       10.50838321       2.06530425      14.00844014      -0.00008389       0.00040692       0.00000382       0.85392208
O        0.03429103      12.53930610      14.00844496      -0.00008837       0.00018966       0.00009100       0.85393453
O        0.03431928       2.06532677       3.53446547      -0.00009451       0.00057107      -0.00006968       0.85392465
O        3.67941523      10.63454868       8.45828948       0.00003444      -0.00040081       0.00003524       0.85390326
O        3.67941977       0.16055833      18.93228120       0.00004779      -0.00036812       0.00003374       0.85390078
O       14.15347889      10.63452539      18.93226491      -0.00000730      -0.00032148      -0.00014177       0.85389942
O       14.15350700       0.16054683       8.45828491      -0.00002116      -0.00036488      -0.00021152       0.85389673
O       10.63445702       8.60363155       3.53445849      -0.00014099      -0.00006881      -0.00011767       0.85392067
O       10.63442874      19.07760850      14.00843871      -0.00009953      -0.00019574      -0.00012749       0.85391430
O        0.16037089       8.60364264      14.00845443      -0.00012786      -0.00002519      -0.00005472       0.85392313
O        0.16036493      19.07763242       3.53446389      -0.00012054      -0.00026782      -0.00017709       0.85391349
O       17.46326765      10.63455595      12.39409418      -0.00011125      -0.00017312       0.00005171       0.85392617
O       17.46329721       0.16057796       1.92011432      -0.00010283      -0.00018205       0.00006378       0.85392123
O        6.98920404      10.63457941       1.92011814      -0.00002904      -0.00019374       0.00031755       0.85392057
O        6.98921044       0.16058978      12.39410988      -0.00004200      -0.00016725       0.00025819       0.85391763
O       17.46311862       8.60367230      10.36320400       0.00000533      -0.00010187      -0.00011494       0.85393485
O       17.46309035      19.07765189      20.83718531       0.00008787      -0.00037728      -0.00011716       0.85392338
O        6.98903289       8.60368370      20.83720239       0.00002353      -0.00011508      -0.00011073       0.85393182
O        6.98902659      19.07767487      10.36321024       0.00009675      -0.00044723      -0.00014434       0.85392136
O        3.67956333      12.53930495      10.36296652       0.00011811      -0.00035540       0.00025279       0.85391167
O        3.67956922       2.06531234      20.83695851      -0.00000373       0.00006426       0.00023770       0.85390971
O       14.15362788      12.53928239      20.83694164       0.00010515      -0.00034719       0.00022463       0.85391079
O       14.15365591       2.06530165      10.36296173       0.00001737       0.00001064       0.00025754       0.85391004
O        3.67944299       8.60359453      10.48927619       0.00010249       0.00021775      -0.00033256       0.85390463
O        3.67943598      19.07758495       0.01528498       0.00002110      -0.00012615      -0.00032385       0.85390758
O       14.15352874       8.60358403       0.01527910       0.00001594      -0.00001664      -0.00032051       0.85390391
O       14.15350027      19.07756260      10.48925962      -0.00007229      -0.00033958      -0.00032109       0.85390375
O       17.46326055      12.53933920      10.48936782      -0.00016777      -0.00002548      -0.00021164       0.85393151
O       17.46328868       2.06536099       0.01538759      -0.00011693       0.00012659      -0.00021265       0.85392000
O        6.98919680      12.53936182       0.01539238      -0.00010716       0.00012038      -0.00023260       0.85392362
O        6.98920302       2.06537172      10.48938440      -0.00005172       0.00033425      -0.00023540       0.85391518
O        8.60339782      10.50853824      17.31795381       0.00003411      -0.00024798       0.00012158       0.85391183
O        8.60342914       0.03456187       6.84397361      -0.00013085      -0.00023633       0.00013287       0.85392159
O       19.07748366      10.50852723       6.84395585       0.00008560      -0.00022929       0.00008173       0.85391009
O       19.07749171       0.03453784      17.31794914      -0.00002059      -0.00023254       0.00011626       0.85391789
O       10.50802005      17.46322484       8.45837647      -0.00009350      -0.00010441      -0.00003798       0.85392568
O       10.50802691       6.98923529      18.93237209      -0.00006685       0.00001212      -0.00029328       0.85392086
O        0.03393391      17.46323631      18.93237494      -0.00004515      -0.00014145       0.00007033       0.85392611
O        0.03396319       6.98925971       8.45839531      -0.00005004      -0.00007413      -0.00005342       0.85392297
O       12.53908114      10.63439652      17.31783367       0.00000317      -0.00004309      -0.00005656       0.85392501
O       12.53910819       0.16041876       6.84385410       0.00009233      -0.00006299      -0.00005624       0.85393304
O        2.06501679      10.63442063       6.84385789       0.00011102      -0.00004736      -0.00000869       0.85392207
O        2.06502079       0.16043016      17.31785114       0.00019898      -0.00004124       0.00001950       0.85392563
O       10.50841410       3.67973729      12.39403698      -0.00010104       0.00006000       0.00012167       0.85392167
O       10.50840832      14.15372694       1.92004264      -0.00011530      -0.00000687       0.00028961       0.85391401
O        0.03434993       3.67976104       1.92006220      -0.00009057       0.00006644       0.00011484       0.85392048
O        0.03432128      14.15373846      12.39404162      -0.00010656       0.00003601       0.00027544       0.85390936
O       12.53922468      10.50837430       3.53440825       0.00049661       0.00005611       0.00001386       0.85392926
O       12.53923119       0.03438409      14.00839976       0.00030438       0.00004008       0.00008989       0.85391955
O        2.06513932      10.50838571      14.00840599       0.00034353       0.00003305       0.00008683       0.85393369
O        2.06516822       0.03440714       3.53442465       0.00028613       0.00006186       0.00007914       0.85392124
O       10.63445324       3.67971043       8.45834121      -0.00017610      -0.00010101      -0.00024344       0.85391260
O       10.63442464      14.15368777      18.93232214      -0.00016024      -0.00011842      -0.00028290       0.85391556
O        0.16036664       3.67972122      18.93233684      -0.00017361      -0.00006705      -0.00006418       0.85391810
O        0.16036048      14.15371039       8.45834691      -0.00018552      -0.00013339      -0.00028764       0.85391198
O        8.60357000      10.63438896       3.53458323       0.00013786       0.00013002      -0.00016969       0.85392071
O        8.60357591       0.16039824      14.00857472       0.00007562       0.00013408      -0.00019083       0.85391568
O       19.07763479      10.63436557      14.00855845       0.00002535       0.00016473      -0.00020189       0.85391891
O       19.07766373       0.16038730       3.53457756      -0.00004135       0.00013378      -0.00024782       0.85391280
O       10.63437381      17.46320064      12.39401392      -0.00008876       0.00000962       0.00000010       0.85391742
O       10.63440301       6.98922377       1.92003424      -0.00010485       0.00003200       0.00000540       0.85391127
O        0.16031025      17.46322320       1.92003982      -0.00007332      -0.00001577      -0.00011027       0.85391863
O        0.16031626       6.98923491      12.39403049      -0.00005930       0.00002733      -0.00003780       0.85390988
C        3.28692243       7.38170750      10.52314999      -0.00038448      -0.00024199       0.00013604       0.40452284
C        3.28691167      17.85569142       0.04915863       0.00007406       0.00021144       0.00015204       0.40452131
C       13.76100568       7.38169280       0.04915325       0.00002901       0.00008304       0.00014318       0.40452242
C       13.76097455      17.85566741      10.52313352       0.00025006       0.00044532       0.00016305       0.40452134
C        7.38169485       3.28727728      10.52320428      -0.00003849      -0.00019632       0.00010706       0.40452100
C        7.38168481      13.76126256       0.04921203       0.00016783      -0.00000471       0.00010965       0.40451964
C       17.85577767       3.28726218       0.04920721       0.00017455      -0.00003376       0.00006110       0.40452196
C       17.85574655      13.76123734      10.52318731       0.00035332       0.00021977       0.00005485       0.40451717
C        3.28702200       3.28718818      20.80297206      -0.00011100      -0.00013646      -0.00001016       0.40449914
C        3.28702090      13.76117275      10.32898018      -0.00044774       0.00030259      -0.00001990       0.40450701
C       13.76110984       3.28717546      10.32897497      -0.00012188      -0.00005822      -0.00002698       0.40450349
C       13.76108642      13.76114885      20.80295504      -0.00046993       0.00028943      -0.00001518       0.40450139
C        7.38154167       7.38179435      20.80320585       0.00011054      -0.00010405       0.00023403       0.40449905
C        7.38154000      17.85577915      10.32921302      -0.00010611       0.00032172       0.00026470       0.40449939
C       17.85562781       7.38178262      10.32920763       0.00026512      -0.00010796       0.00025298       0.40449650
C       17.85560452      17.85575562      20.80318862      -0.00019837       0.00030693       0.00019582       0.40449985
C       10.66833203       3.28717035       7.23645862       0.00010275      -0.00001657       0.00018095       0.40452214
C       10.66830328      13.76114556      17.71043667       0.00008571       0.00027063       0.00032984       0.40452474
C        0.19424473       3.28718267      17.71045654       0.00011623      -0.00016936      -0.00004958       0.40452379
C        0.19423910      13.76116858       7.23646211       0.00010205       0.00029785       0.00033288       0.40452623
C        7.38169996      10.66839406       3.14202270      -0.00005242       0.00002530      -0.00025197       0.40452050
C        7.38170601       0.19440357      13.61601345      -0.00003843       0.00000713      -0.00009826       0.40451950
C       17.85576109      10.66837034      13.61599540       0.00015337      -0.00000533       0.00006297       0.40451795
C       17.85579085       0.19439231       3.14201436       0.00018164       0.00000916       0.00013724       0.40452194
C       20.94803110       7.38174860       7.23649076       0.00012761      -0.00016866       0.00010039       0.40449416
C       20.94800176      17.85572235      17.71047412       0.00013376       0.00009183      -0.00013204       0.40449267
C       10.47394426       7.38175974      17.71048670       0.00012575      -0.00034020       0.00024280       0.40448940
C       10.47393796      17.85574427       7.23649967       0.00016529       0.00025566      -0.00012270       0.40449084
C        3.28689653      10.66839037       7.23639661      -0.00008756       0.00017190       0.00000555       0.40452019
C        3.28690142       0.19439973      17.71039015      -0.00012825       0.00016130      -0.00005677       0.40452294
C       13.76095898      10.66836642      17.71037113       0.00006992       0.00011146       0.00023613       0.40452248
C       13.76098736       0.19438848       7.23639201       0.00009125       0.00017634       0.00024514       0.40452039
C       10.66833115       7.38174958       3.14191922       0.00008796       0.00003472       0.00005194       0.40452616
C       10.66830234      17.85572493      13.61589765       0.00005894       0.00016875       0.00011785       0.40452439
C        0.19424451       7.38176076      13.61591528       0.00005824       0.00001669      -0.00000775       0.40452664
C        0.19423878      17.85574662       3.14192198       0.00005740       0.00033265       0.00024609       0.40452258
C        3.28702522      20.94833596       3.14189585      -0.00036267      -0.00001577       0.00015333       0.40449808
C        3.28703295      10.47434696      13.61588843      -0.00043427       0.00002625       0.00013058       0.40449364
C       13.76109101      20.94831266      13.61586945      -0.00031987       0.00001719       0.00015108       0.40450109
C       13.76112199      10.47433529       3.14188823      -0.00059320       0.00001460       0.00031669       0.40449501
C       20.94838189       3.28718338       3.14191525       0.00016947      -0.00061316       0.00000253       0.40449376
C       20.94835322      13.76115767      13.61589821       0.00015760      -0.00022213      -0.00037335       0.40449684
C       10.47429559       3.28719394      13.61591202       0.00014026      -0.00036361      -0.00003297       0.40449700
C       10.47428971      13.76117942       3.14192420       0.00010343      -0.00000122      -0.00036958       0.40449790
C        7.38152295      20.94847389       7.23653472      -0.00000277       0.00018007       0.00002229       0.40449389
C        7.38153006      10.47448378      17.71052433      -0.00008346       0.00019571       0.00019502       0.40449844
C       17.85558756      20.94845053      17.71050893       0.00001755       0.00018823       0.00009545       0.40449829
C       17.85561715      10.47447248       7.23652546      -0.00010262       0.00019924       0.00020167       0.40449389
C       20.89584031       6.32441052       6.17916495      -0.00000639      -0.00010903       0.00007039      -0.60570028
C       20.89581085      16.79838620      16.65314655      -0.00001139       0.00008365       0.00007119      -0.60570207
C       10.42175358       6.32442091      16.65316245      -0.00001274       0.00002930       0.00007659      -0.60569869
C       10.42174701      16.79840872       6.17917094      -0.00000195       0.00004295       0.00013295      -0.60570213
C       10.72022424       4.34450407       6.17912888       0.00001273      -0.00004521       0.00003990      -0.60570343
C       10.72019527      14.81847984      16.65310736       0.00000454       0.00006327       0.00004594      -0.60570225
C        0.24613671       4.34451481      16.65312487       0.00001471       0.00001393       0.00001065      -0.60570322
C        0.24613133      14.81850281       6.17913272       0.00003165      -0.00000615      -0.00001540      -0.60570152
C       20.89607399       4.34449889       4.19925113      -0.00009472       0.00015898       0.00016418      -0.60570332
C       20.89604482      14.81847590      14.67323226      -0.00010616       0.00011954       0.00009860      -0.60570503
C       10.42198730       4.34450927      14.67324838      -0.00013731       0.00019802       0.00012852      -0.60570623
C       10.42198098      14.81849795       4.19925670      -0.00015093       0.00020946       0.00017295      -0.60570699
C       10.72022045       6.32441104       4.19924843       0.00003488       0.00000473      -0.00005205      -0.60570435
C       10.72019141      16.79838745      14.67322749       0.00000918       0.00000867      -0.00006353      -0.60570262
C        0.24613339       6.32442159      14.67324429       0.00002360      -0.00005952      -0.00001206      -0.60570471
C        0.24612787      16.79840993       4.19925234       0.00000878      -0.00007647      -0.00006647      -0.60570116
C        6.32418609      20.89634633       6.17920779       0.00021036      -0.00013526       0.00005871      -0.60569875
C        6.32419245      10.42235631      16.65319880       0.00007653      -0.00012421       0.00006488      -0.60570366
C       16.79824993      20.89632307      16.65318295       0.00013280      -0.00013989       0.00003294      -0.60570185
C       16.79827924      10.42234480       6.17920046       0.00016165      -0.00011784       0.00009393      -0.60570090
C        6.32420674       6.32446767      20.75104957       0.00021887       0.00000027      -0.00014278      -0.60570186
C        6.32420242      16.79845586      10.27705648       0.00016540       0.00004339      -0.00015439      -0.60570254
C       16.79829302       6.32445652      10.27705155       0.00018185      -0.00005330      -0.00013895      -0.60570127
C       16.79826627      16.79843280      20.75103222       0.00017822       0.00002053      -0.00016907      -0.60570308
C        4.34427085      10.72030612       6.17909707       0.00010695       0.00004057       0.00008054      -0.60569901
C        4.34427572       0.24631498      16.65309004       0.00014713       0.00003834       0.00011425      -0.60570170
C       14.81833433      10.72028185      16.65307210       0.00010796       0.00002250       0.00008398      -0.60570069
C       14.81836277       0.24630412       6.17909304       0.00011114       0.00003319       0.00013680      -0.60570114
C        4.34428620       6.32439242      10.57510773       0.00004993      -0.00003234       0.00001549      -0.60570118
C        4.34427752      16.79837826       0.10111603       0.00012953       0.00014129       0.00002168      -0.60570358
C       14.81837086       6.32437903       0.10111110       0.00008031       0.00007604       0.00001394      -0.60570124
C       14.81834118      16.79835524      10.57509119       0.00012981       0.00010863       0.00002770      -0.60570249
C        6.32431475      10.72029320       4.19931734      -0.00018323       0.00007550      -0.00014977      -0.60570565
C        6.32432049       0.24630196      14.67330899      -0.00016863       0.00005420      -0.00015520      -0.60570193
C       16.79837766      10.72026905      14.67329196      -0.00016719       0.00005315      -0.00018063      -0.60570581
C       16.79840691       0.24629113       4.19931155      -0.00017977       0.00007262      -0.00014124      -0.60570415
C        4.34432968       4.34453670      20.75086295       0.00016139       0.00008427       0.00003908      -0.60570035
C        4.34432567      14.81852450      10.27687044       0.00007653       0.00022340      -0.00002821      -0.60570425
C       14.81841644       4.34452529      10.27686559       0.00021424       0.00015726       0.00001953      -0.60570210
C       14.81839032      14.81850116      20.75084567       0.00001378       0.00023575       0.00002979      -0.60570063
C        4.34432130      20.89622632       4.19925964       0.00017355      -0.00001642       0.00020936      -0.60569995